<?xml version="1.0" encoding="UTF-8"?>
<fcd-export>
<timestep time="21630.0">
<vehicle x="24496.53" y="26077.78" pos="126.37" lane="-80015627#0_0" type="porsche" slope="0.00" id="_h5_4350" speed="23.99" angle="-70.70">
</vehicle>
<vehicle x="21766.98" y="20576.91" pos="1.36" lane="95751234#3_0" type="porsche" slope="0.00" id="_h5_4351" speed="7.26" angle="177.04">
</vehicle>
<vehicle x="22822.31" y="19065.25" pos="61.07" lane="-9234280_1" type="porsche" slope="0.00" id="_h5_4352" speed="24.00" angle="-116.40">
</vehicle>
<vehicle x="19119.86" y="22222.18" pos="80.48" lane="4015977#1_0" type="cx" slope="0.00" id="_h5_4353" speed="34.54" angle="-5.49">
</vehicle>
<vehicle x="20795.41" y="19018.80" pos="715.31" lane="26750820#2_0" type="306" slope="0.00" id="_h5_4354" speed="36.10" angle="75.11">
</vehicle>
<vehicle x="24053.63" y="18860.49" pos="114.51" lane="9096558_0" type="cx" slope="0.00" id="_h5_4355" speed="24.70" angle="121.66">
</vehicle>
<vehicle x="32018.88" y="15147.14" pos="31.68" lane="155999102#1_0" type="twingo" slope="0.00" id="_h5_4356" speed="24.23" angle="-111.04">
</vehicle>
<vehicle x="31371.55" y="26019.42" pos="637.65" lane="133399223_0" type="twingo" slope="0.00" id="_h5_4357" speed="34.89" angle="-70.46">
</vehicle>
<vehicle x="23182.59" y="18633.64" pos="48.38" lane="31477868_0" type="twingo" slope="0.00" id="_h5_4358" speed="34.66" angle="88.04">
</vehicle>
<vehicle x="18259.01" y="21365.23" pos="21.75" lane="-125333160#2_0" type="206" slope="0.00" id="_h5_4359" speed="1.79" angle="112.45">
</vehicle>
<vehicle x="24441.59" y="19164.78" pos="132.19" lane="9096571_0" type="twingo" slope="0.00" id="_h5_4360" speed="24.81" angle="137.07">
</vehicle>
<vehicle x="35073.58" y="23672.82" pos="498.15" lane="-28439234#6_0" type="twingo" slope="0.00" id="_h5_4361" speed="27.41" angle="-99.85">
</vehicle>
<vehicle x="19181.01" y="21919.85" pos="411.87" lane="9232022_0" type="306" slope="0.00" id="_h5_4362" speed="21.85" angle="-32.48">
</vehicle>
<vehicle x="37952.97" y="31393.67" pos="47.96" lane="-89615172_0" type="cx" slope="0.00" id="_h5_4363" speed="23.97" angle="-56.24">
</vehicle>
<vehicle x="37403.27" y="16444.42" pos="29.04" lane="5017364#2_0" type="twingo" slope="0.00" id="_h5_4364" speed="24.56" angle="-49.25">
</vehicle>
<vehicle x="29511.97" y="22713.89" pos="283.71" lane="-8599689_0" type="306" slope="0.00" id="_h5_4365" speed="27.05" angle="-98.66">
</vehicle>
<vehicle x="27026.96" y="23219.74" pos="331.74" lane="-86613973#0_0" type="porsche" slope="0.00" id="_h5_4366" speed="24.96" angle="-91.83">
</vehicle>
<vehicle x="31544.21" y="26084.35" pos="452.96" lane="133399223_0" type="porsche" slope="0.00" id="_h5_4367" speed="35.93" angle="-67.97">
</vehicle>
<vehicle x="21871.54" y="21351.92" pos="34.50" lane="50051544#0_0" type="306" slope="0.00" id="_h5_4368" speed="1.43" angle="137.46">
</vehicle>
<vehicle x="26675.96" y="26417.59" pos="187.01" lane="24788769_0" type="cx" slope="0.00" id="_h5_4369" speed="24.69" angle="15.04">
</vehicle>
<vehicle x="21436.39" y="24114.82" pos="15.45" lane="50769133_0" type="206" slope="0.00" id="_h5_4370" speed="13.76" angle="35.29">
</vehicle>
<vehicle x="23093.97" y="21968.55" pos="80.66" lane="-9070794#1_0" type="porsche" slope="0.00" id="_h5_4371" speed="0.00" angle="-124.87">
</vehicle>
<vehicle x="19215.09" y="23532.80" pos="167.93" lane="4015964#0_0" type="cx" slope="0.00" id="_h5_4372" speed="34.52" angle="-168.65">
</vehicle>
<vehicle x="15008.08" y="25112.73" pos="526.64" lane="24477182#1_0" type="306" slope="0.00" id="_h5_4373" speed="35.82" angle="62.60">
</vehicle>
<vehicle x="7315.88" y="17416.20" pos="307.25" lane="-124163819#7_0" type="twingo" slope="0.00" id="_h5_4374" speed="13.01" angle="136.96">
</vehicle>
<vehicle x="11947.13" y="25368.63" pos="10.37" lane="24540173#2_0" type="cx" slope="0.00" id="_h5_4375" speed="13.86" angle="155.84">
</vehicle>
<vehicle x="28281.28" y="16219.26" pos="9.03" lane="69718428#0_1" type="porsche" slope="0.00" id="_h5_4376" speed="8.37" angle="-104.98">
</vehicle>
<vehicle x="22464.23" y="18982.27" pos="30.43" lane="24837458_0" type="porsche" slope="0.00" id="_h5_4377" speed="21.73" angle="-101.60">
</vehicle>
<vehicle x="19149.57" y="22349.90" pos="525.19" lane="31350327#0_0" type="twingo" slope="0.00" id="_h5_4378" speed="34.42" angle="174.45">
</vehicle>
<vehicle x="35938.59" y="30867.08" pos="6.48" lane="69083539#2_0" type="cx" slope="0.00" id="_h5_4379" speed="13.81" angle="-105.16">
</vehicle>
<vehicle x="34904.84" y="25783.51" pos="168.93" lane="-155414582#5_0" type="porsche" slope="0.00" id="_h5_4380" speed="27.65" angle="-69.04">
</vehicle>
<vehicle x="23089.45" y="21971.70" pos="86.17" lane="-9070794#1_0" type="twingo" slope="0.00" id="_h5_4381" speed="0.00" angle="-124.87">
</vehicle>
<vehicle x="20141.73" y="23174.00" pos="16.64" lane="50047647#0_0" type="306" slope="0.00" id="_h5_4383" speed="13.51" angle="79.47">
</vehicle>
<vehicle x="31493.06" y="26064.03" pos="508.06" lane="133399223_0" type="306" slope="0.00" id="_h5_4384" speed="35.47" angle="-69.32">
</vehicle>
<vehicle x="19161.00" y="23543.56" pos="22.04" lane="23618175_0" type="206" slope="0.00" id="_h5_4385" speed="22.02" angle="-63.96">
</vehicle>
<vehicle x="11263.17" y="12622.39" pos="1935.85" lane="85192880_0" type="306" slope="0.00" id="_h5_4386" speed="30.41" angle="27.90">
</vehicle>
<vehicle x="19206.89" y="23131.67" pos="178.35" lane="4015977#0_0" type="twingo" slope="0.00" id="_h5_4387" speed="34.89" angle="-5.46">
</vehicle>
<vehicle x="16571.66" y="12713.35" pos="113.51" lane="50548187#3_0" type="206" slope="0.00" id="_h5_4388" speed="13.28" angle="136.64">
</vehicle>
<vehicle x="20166.60" y="19283.52" pos="31.44" lane="26750820#2_0" type="twingo" slope="0.00" id="_h5_4389" speed="25.79" angle="58.34">
</vehicle>
<vehicle x="29872.87" y="18503.53" pos="345.52" lane="118420047#0_1" type="twingo" slope="0.00" id="_h5_4390" speed="27.73" angle="133.63">
</vehicle>
<vehicle x="34164.62" y="26722.72" pos="4666.53" lane="133399906_0" type="206" slope="0.00" id="_h5_4391" speed="35.81" angle="-88.20">
</vehicle>
<vehicle x="15871.75" y="23724.08" pos="14.71" lane="8773014#1_0" type="twingo" slope="0.00" id="_h5_4392" speed="14.34" angle="26.52">
</vehicle>
<vehicle x="19197.59" y="22843.95" pos="312.79" lane="31350327#1_0" type="cx" slope="0.00" id="_h5_4393" speed="34.65" angle="174.45">
</vehicle>
<vehicle x="32975.76" y="26573.17" pos="1.65" lane="26610343#0_1" type="cx" slope="0.00" id="_h5_4394" speed="34.57" angle="-88.60">
</vehicle>
<vehicle x="23241.98" y="10861.54" pos="91.37" lane="-158933843#0_0" type="206" slope="0.00" id="_h5_4395" speed="19.51" angle="95.85">
</vehicle>
<vehicle x="22380.36" y="16681.07" pos="358.17" lane="-9808017#0_0" type="206" slope="0.00" id="_h5_4396" speed="24.68" angle="41.12">
</vehicle>
<vehicle x="21508.91" y="21357.01" pos="59.08" lane="50049231_1" type="cx" slope="0.00" id="_h5_4397" speed="11.24" angle="-90.20">
</vehicle>
<vehicle x="17991.57" y="21278.33" pos="30.24" lane="-125333156#0_0" type="306" slope="0.00" id="_h5_4398" speed="13.74" angle="105.85">
</vehicle>
<vehicle x="22987.74" y="32578.60" pos="164.59" lane="-34471620#12_0" type="206" slope="0.00" id="_h5_4399" speed="0.00" angle="2.97">
</vehicle>
<vehicle x="26538.65" y="26926.39" pos="282.13" lane="24788842_0" type="cx" slope="0.00" id="_h5_4400" speed="24.59" angle="15.34">
</vehicle>
<vehicle x="31965.05" y="22162.02" pos="204.75" lane="83999536_1" type="porsche" slope="0.00" id="_h5_4401" speed="24.10" angle="-170.70">
</vehicle>
<vehicle x="18097.64" y="16787.66" pos="1128.60" lane="28006806#3_0" type="206" slope="0.00" id="_h5_4402" speed="35.54" angle="116.14">
</vehicle>
<vehicle x="16786.52" y="15408.04" pos="100.03" lane="28006806#2_0" type="twingo" slope="0.00" id="_h5_4403" speed="33.98" angle="144.60">
</vehicle>
<vehicle x="24330.40" y="19059.26" pos="455.14" lane="9096558_0" type="206" slope="0.00" id="_h5_4404" speed="24.89" angle="129.32">
</vehicle>
<vehicle x="11128.00" y="24916.25" pos="628.49" lane="24430094#3_0" type="306" slope="0.00" id="_h5_4405" speed="35.69" angle="82.78">
</vehicle>
<vehicle x="35289.05" y="26705.89" pos="3541.27" lane="133399906_0" type="twingo" slope="0.00" id="_h5_4406" speed="34.76" angle="-91.70">
</vehicle>
<vehicle x="32065.77" y="26295.11" pos="45.70" lane="64523916#1_1" type="206" slope="0.00" id="_h5_4407" speed="35.81" angle="-69.37">
</vehicle>
<vehicle x="35719.50" y="26150.59" pos="122.30" lane="-155414582#8_1" type="twingo" slope="0.00" id="_h5_4408" speed="27.18" angle="-91.42">
</vehicle>
<vehicle x="20036.81" y="19368.30" pos="398.31" lane="26750820#1_0" type="306" slope="0.00" id="_h5_4409" speed="35.66" angle="54.23">
</vehicle>
<vehicle x="17642.62" y="10036.64" pos="395.71" lane="24563837#2_0" type="206" slope="0.00" id="_h5_4410" speed="35.82" angle="-101.91">
</vehicle>
<vehicle x="23781.73" y="18733.11" pos="220.99" lane="33927221_0" type="porsche" slope="0.00" id="_h5_4411" speed="36.03" angle="110.09">
</vehicle>
<vehicle x="22376.24" y="13300.99" pos="31.51" lane="-27021794_1" type="206" slope="0.00" id="_h5_4412" speed="19.46" angle="-132.08">
</vehicle>
<vehicle x="18406.66" y="10043.70" pos="1107.92" lane="24563837#1_0" type="206" slope="0.00" id="_h5_4413" speed="36.07" angle="-79.95">
</vehicle>
<vehicle x="15991.62" y="24661.19" pos="1611.60" lane="24477182#1_0" type="cx" slope="0.00" id="_h5_4414" speed="34.80" angle="74.94">
</vehicle>
<vehicle x="22862.64" y="19045.23" pos="16.03" lane="-9234280_1" type="porsche" slope="0.00" id="_h5_4416" speed="21.59" angle="-116.40">
</vehicle>
<vehicle x="20006.66" y="12811.60" pos="353.04" lane="-69158357_1" type="306" slope="0.00" id="_h5_4417" speed="13.13" angle="24.92">
</vehicle>
<vehicle x="17519.00" y="21840.54" pos="508.25" lane="93647618#1_0" type="306" slope="0.00" id="_h5_4418" speed="24.79" angle="175.26">
</vehicle>
<vehicle x="33419.71" y="26650.83" pos="140.89" lane="29903392_1" type="porsche" slope="0.00" id="_h5_4419" speed="35.77" angle="-81.92">
</vehicle>
<vehicle x="19079.78" y="23686.67" pos="346.62" lane="23618220_0" type="porsche" slope="0.00" id="_h5_4420" speed="21.50" angle="-7.35">
</vehicle>
<vehicle x="14090.68" y="20246.58" pos="21.35" lane="27453493#4_0" type="306" slope="0.00" id="_h5_4421" speed="24.74" angle="99.37">
</vehicle>
<vehicle x="18045.98" y="24534.46" pos="366.39" lane="4015963#1_0" type="206" slope="0.00" id="_h5_4423" speed="35.42" angle="75.76">
</vehicle>
<vehicle x="32013.44" y="26278.62" pos="100.44" lane="64523916#1_0" type="porsche" slope="0.00" id="_h5_4424" speed="35.12" angle="-68.69">
</vehicle>
<vehicle x="20003.20" y="12811.23" pos="351.60" lane="-69158357_0" type="porsche" slope="0.00" id="_h5_4425" speed="13.31" angle="24.91">
</vehicle>
<vehicle x="19439.73" y="10196.97" pos="63.08" lane="24563837#1_0" type="cx" slope="0.00" id="_h5_4426" speed="26.74" angle="-86.31">
</vehicle>
<vehicle x="40372.69" y="26912.79" pos="266.83" lane="-24793234#5_1" type="306" slope="0.00" id="_h5_4427" speed="27.40" angle="-176.73">
</vehicle>
<vehicle x="35335.44" y="26704.51" pos="3494.84" lane="133399906_0" type="porsche" slope="0.00" id="_h5_4428" speed="34.73" angle="-91.70">
</vehicle>
<vehicle x="14419.92" y="25564.04" pos="0.11" lane="-122701115#1_0" type="porsche" slope="0.00" id="_h5_4429" speed="23.95" angle="-21.60">
</vehicle>
<vehicle x="26278.47" y="25478.24" pos="476.20" lane="31478310_0" type="cx" slope="0.00" id="_h5_4430" speed="34.99" angle="166.45">
</vehicle>
<vehicle x="25786.60" y="26938.99" pos="581.36" lane="-80015627#5_0" type="porsche" slope="0.00" id="_h5_4431" speed="24.63" angle="-57.06">
</vehicle>
<vehicle x="21719.05" y="19888.13" pos="9.37" lane="37359421_0" type="porsche" slope="0.00" id="_h5_4432" speed="13.17" angle="-7.46">
</vehicle>
<vehicle x="10985.61" y="29214.40" pos="227.50" lane="-24887956#6_0" type="twingo" slope="0.00" id="_h5_4433" speed="27.03" angle="-42.33">
</vehicle>
<vehicle x="21462.41" y="21313.65" pos="384.05" lane="9069577#1_0" type="306" slope="0.00" id="_h5_4434" speed="1.41" angle="79.33">
</vehicle>
<vehicle x="33494.19" y="26664.65" pos="65.24" lane="29903392_0" type="306" slope="0.00" id="_h5_4435" speed="36.06" angle="-82.78">
</vehicle>
<vehicle x="18729.85" y="16987.92" pos="507.50" lane="27754908#0_0" type="cx" slope="0.00" id="_h5_4436" speed="34.83" angle="105.58">
</vehicle>
<vehicle x="28625.86" y="22723.18" pos="1189.01" lane="-8599689_0" type="306" slope="0.00" id="_h5_4437" speed="27.37" angle="-95.57">
</vehicle>
<vehicle x="31105.72" y="22389.86" pos="92.02" lane="-128219962#3_1" type="twingo" slope="0.00" id="_h5_4438" speed="27.34" angle="-117.73">
</vehicle>
<vehicle x="17578.90" y="21159.30" pos="134.74" lane="-125333159#0_0" type="cx" slope="0.00" id="_h5_4439" speed="13.77" angle="109.96">
</vehicle>
<vehicle x="21362.93" y="21332.32" pos="282.78" lane="9069577#1_0" type="206" slope="0.00" id="_h5_4440" speed="13.14" angle="81.76">
</vehicle>
<vehicle x="17916.35" y="24990.32" pos="63.98" lane="32079767#1_0" type="206" slope="0.00" id="_h5_4441" speed="17.36" angle="157.25">
</vehicle>
<vehicle x="9877.40" y="13260.82" pos="279.69" lane="85192880_0" type="twingo" slope="0.00" id="_h5_4442" speed="30.51" angle="113.24">
</vehicle>
<vehicle x="25414.53" y="20740.42" pos="46.97" lane="9507920_0" type="206" slope="0.00" id="_h5_4443" speed="35.74" angle="144.84">
</vehicle>
<vehicle x="21303.68" y="17599.34" pos="381.34" lane="161639721_0" type="306" slope="0.00" id="_h5_4444" speed="19.06" angle="0.11">
</vehicle>
<vehicle x="35881.26" y="26761.68" pos="2943.96" lane="133399906_0" type="206" slope="0.00" id="_h5_4445" speed="34.58" angle="-75.42">
</vehicle>
<vehicle x="30258.86" y="15997.59" pos="294.95" lane="34911478_0" type="cx" slope="0.00" id="_h5_4446" speed="24.54" angle="-148.05">
</vehicle>
<vehicle x="35522.72" y="22689.74" pos="104.32" lane="-83999614#8_0" type="porsche" slope="0.00" id="_h5_4447" speed="27.39" angle="-73.61">
</vehicle>
<vehicle x="32875.91" y="26548.76" pos="8.34" lane="26610343#1_0" type="306" slope="0.00" id="_h5_4448" speed="35.80" angle="-76.21">
</vehicle>
<vehicle x="24109.90" y="14441.66" pos="82.94" lane="-25370040_0" type="twingo" slope="0.00" id="_h5_4449" speed="13.85" angle="46.50">
</vehicle>
<vehicle x="22300.71" y="18839.03" pos="469.56" lane="30767489#1_0" type="twingo" slope="0.00" id="_h5_4450" speed="34.62" angle="75.09">
</vehicle>
<vehicle x="23202.59" y="21365.24" pos="14.42" lane="9238892#2_0" type="206" slope="0.00" id="_h5_4451" speed="13.19" angle="15.70">
</vehicle>
<vehicle x="23131.10" y="21391.42" pos="300.80" lane="-9070454_0" type="206" slope="0.00" id="_h5_4452" speed="19.16" angle="164.01">
</vehicle>
<vehicle x="17485.01" y="21119.07" pos="32.46" lane="-125333159#0_0" type="porsche" slope="0.00" id="_h5_4453" speed="12.97" angle="114.52">
</vehicle>
<vehicle x="28619.17" y="26433.08" pos="597.69" lane="30143811#3_0" type="306" slope="0.00" id="_h5_4454" speed="35.45" angle="-91.05">
</vehicle>
<vehicle x="34181.04" y="26719.93" pos="4650.52" lane="133399906_1" type="206" slope="0.00" id="_h5_4455" speed="36.08" angle="-88.20">
</vehicle>
<vehicle x="18648.32" y="24274.73" pos="197.25" lane="4015963#2_0" type="206" slope="0.00" id="_h5_4456" speed="35.99" angle="56.31">
</vehicle>
<vehicle x="22267.01" y="18850.63" pos="434.08" lane="30767489#1_1" type="porsche" slope="0.00" id="_h5_4457" speed="35.37" angle="76.58">
</vehicle>
<vehicle x="26299.45" y="27358.66" pos="49.45" lane="22914314_0" type="twingo" slope="0.00" id="_h5_4458" speed="13.02" angle="-141.57">
</vehicle>
<vehicle x="26293.48" y="24663.74" pos="503.42" lane="71121158_0" type="206" slope="0.00" id="_h5_4459" speed="35.58" angle="-4.87">
</vehicle>
<vehicle x="10841.09" y="24933.57" pos="340.54" lane="24430094#3_0" type="cx" slope="0.00" id="_h5_4460" speed="34.45" angle="90.75">
</vehicle>
<vehicle x="36767.08" y="27280.92" pos="1903.05" lane="133399906_0" type="twingo" slope="0.00" id="_h5_4461" speed="33.91" angle="-43.69">
</vehicle>
<vehicle x="21205.61" y="21351.82" pos="124.14" lane="9069577#1_0" type="306" slope="0.00" id="_h5_4462" speed="13.55" angle="85.07">
</vehicle>
<vehicle x="19526.14" y="34749.56" pos="69.19" lane="158347944#0_0" type="twingo" slope="0.00" id="_h5_4463" speed="18.92" angle="-58.73">
</vehicle>
<vehicle x="34331.88" y="26722.97" pos="4499.64" lane="133399906_1" type="306" slope="0.00" id="_h5_4464" speed="35.81" angle="-89.79">
</vehicle>
<vehicle x="22971.97" y="20749.25" pos="13.34" lane="-9386853_0" type="porsche" slope="0.00" id="_h5_4465" speed="18.86" angle="-157.07">
</vehicle>
<vehicle x="19360.47" y="33550.82" pos="689.79" lane="145798826#0_0" type="porsche" slope="0.00" id="_h5_4466" speed="24.39" angle="1.96">
</vehicle>
<vehicle x="15940.39" y="14649.13" pos="748.29" lane="28006806#0_0" type="twingo" slope="0.00" id="_h5_4467" speed="34.30" angle="125.14">
</vehicle>
<vehicle x="31602.08" y="21916.00" pos="102.77" lane="-111548856#1_1" type="porsche" slope="0.00" id="_h5_4468" speed="26.78" angle="-117.19">
</vehicle>
<vehicle x="24965.18" y="20053.02" pos="904.56" lane="9096625_0" type="206" slope="0.00" id="_h5_4469" speed="35.71" angle="151.97">
</vehicle>
<vehicle x="33375.13" y="26647.56" pos="185.45" lane="29903392_0" type="306" slope="0.00" id="_h5_4470" speed="35.41" angle="-80.85">
</vehicle>
<vehicle x="19104.75" y="21821.33" pos="16.32" lane="9231748_0" type="porsche" slope="0.00" id="_h5_4471" speed="28.15" angle="174.00">
</vehicle>
<vehicle x="25707.30" y="19902.42" pos="15.89" lane="86614459#2_0" type="cx" slope="0.00" id="_h5_4472" speed="13.42" angle="143.52">
</vehicle>
<vehicle x="40698.29" y="25645.00" pos="343.75" lane="-24793234#8_1" type="twingo" slope="0.00" id="_h5_4473" speed="27.26" angle="-157.10">
</vehicle>
<vehicle x="24318.61" y="18313.31" pos="69.41" lane="-144731514#3_0" type="206" slope="0.00" id="_h5_4474" speed="13.44" angle="-79.22">
</vehicle>
<vehicle x="15630.11" y="17975.66" pos="160.80" lane="-49854513#7_0" type="porsche" slope="0.00" id="_h5_4475" speed="13.84" angle="172.33">
</vehicle>
<vehicle x="19075.35" y="21459.63" pos="1187.08" lane="26750733#2_0" type="206" slope="0.00" id="_h5_4476" speed="35.64" angle="177.51">
</vehicle>
<vehicle x="35834.89" y="26750.86" pos="2991.60" lane="133399906_0" type="cx" slope="0.00" id="_h5_4477" speed="34.57" angle="-77.19">
</vehicle>
<vehicle x="17851.46" y="24486.88" pos="72.52" lane="-32079795_1" type="porsche" slope="0.00" id="_h5_4478" speed="18.36" angle="25.13">
</vehicle>
<vehicle x="42240.67" y="25894.58" pos="104.13" lane="-145086773#2_0" type="cx" slope="0.00" id="_h5_4479" speed="13.39" angle="21.41">
</vehicle>
<vehicle x="20524.50" y="19123.92" pos="741.46" lane="28260960_0" type="porsche" slope="0.00" id="_h5_4480" speed="35.02" angle="-111.84">
</vehicle>
<vehicle x="18211.29" y="16494.92" pos="175.58" lane="-136182224#0_0" type="twingo" slope="0.00" id="_h5_4481" speed="24.66" angle="-158.77">
</vehicle>
<vehicle x="19074.29" y="21196.38" pos="923.40" lane="26750733#2_0" type="twingo" slope="0.00" id="_h5_4482" speed="34.07" angle="-177.90">
</vehicle>
<vehicle x="26607.23" y="27585.26" pos="396.26" lane="-30269024_0" type="twingo" slope="0.00" id="_h5_4483" speed="24.12" angle="-34.57">
</vehicle>
<vehicle x="42451.26" y="23068.97" pos="70.77" lane="-24468454_0" type="cx" slope="0.00" id="_h5_4484" speed="27.49" angle="-112.81">
</vehicle>
<vehicle x="11299.93" y="19542.80" pos="23.84" lane="31670823#0_1" type="306" slope="0.00" id="_h5_4485" speed="12.33" angle="117.73">
</vehicle>
<vehicle x="35190.71" y="19961.63" pos="316.95" lane="-5017387#0_0" type="206" slope="0.00" id="_h5_4486" speed="16.02" angle="-100.14">
</vehicle>
<vehicle x="24843.20" y="19799.40" pos="623.14" lane="9096625_0" type="twingo" slope="0.00" id="_h5_4487" speed="34.19" angle="155.10">
</vehicle>
<vehicle x="13564.48" y="17505.36" pos="618.35" lane="97586311_1" type="twingo" slope="0.00" id="_h5_4488" speed="23.97" angle="-150.28">
</vehicle>
<vehicle x="17796.43" y="24578.99" pos="111.34" lane="4015963#1_0" type="206" slope="0.00" id="_h5_4489" speed="35.91" angle="83.09">
</vehicle>
<vehicle x="17213.03" y="24570.77" pos="535.95" lane="4015963#0_0" type="cx" slope="0.00" id="_h5_4490" speed="34.92" angle="94.90">
</vehicle>
<vehicle x="34028.93" y="26715.80" pos="4802.47" lane="133399906_0" type="porsche" slope="0.00" id="_h5_4491" speed="35.47" angle="-86.66">
</vehicle>
<vehicle x="16726.59" y="20788.23" pos="37.31" lane="70994706#0_0" type="porsche" slope="0.00" id="_h5_4492" speed="19.25" angle="105.65">
</vehicle>
<vehicle x="15754.91" y="14325.40" pos="387.15" lane="34962625#0_0" type="porsche" slope="0.00" id="_h5_4493" speed="26.74" angle="126.49">
</vehicle>
<vehicle x="24814.63" y="26205.44" pos="65.36" lane="-80015627#2_0" type="twingo" slope="0.00" id="_h5_4494" speed="24.38" angle="-56.70">
</vehicle>
<vehicle x="19289.10" y="20288.85" pos="124.81" lane="26750733#2-AddedOnRampEdge_1" type="twingo" slope="0.00" id="_h5_4495" speed="26.70" angle="-155.32">
</vehicle>
<vehicle x="23378.42" y="20289.53" pos="4.18" lane="-122797416#0_0" type="twingo" slope="0.00" id="_h5_4496" speed="13.38" angle="-175.18">
</vehicle>
<vehicle x="37075.69" y="27637.67" pos="1431.05" lane="133399906_0" type="porsche" slope="0.00" id="_h5_4497" speed="35.58" angle="-39.91">
</vehicle>
<vehicle x="31944.14" y="21635.19" pos="119.54" lane="-149519309_0" type="porsche" slope="0.00" id="_h5_4498" speed="13.22" angle="-126.11">
</vehicle>
<vehicle x="19439.49" y="14457.04" pos="4.53" lane="-50658543#0_0" type="cx" slope="0.00" id="_h5_4499" speed="24.68" angle="-35.67">
</vehicle>
<vehicle x="20269.75" y="21233.40" pos="1046.87" lane="27754908#4_0" type="306" slope="0.00" id="_h5_4500" speed="35.50" angle="121.56">
</vehicle>
<vehicle x="22569.82" y="17556.15" pos="106.87" lane="26240253#1_0" type="twingo" slope="0.00" id="_h5_4501" speed="24.62" angle="-60.04">
</vehicle>
<vehicle x="33246.06" y="14869.83" pos="407.12" lane="59399679#1_0" type="porsche" slope="0.00" id="_h5_4502" speed="21.08" angle="-92.67">
</vehicle>
<vehicle x="34324.80" y="26726.22" pos="4506.24" lane="133399906_0" type="206" slope="0.00" id="_h5_4503" speed="35.74" angle="-89.24">
</vehicle>
<vehicle x="21353.00" y="18941.59" pos="4.01" lane="30767489#0_0" type="306" slope="0.00" id="_h5_4504" speed="35.69" angle="87.70">
</vehicle>
<vehicle x="36299.09" y="26923.68" pos="2494.46" lane="133399906_0" type="206" slope="0.00" id="_h5_4505" speed="35.96" angle="-61.83">
</vehicle>
<vehicle x="13919.66" y="25357.79" pos="20.26" lane="24477147#2_0" type="206" slope="0.00" id="_h5_4506" speed="21.37" angle="98.42">
</vehicle>
<vehicle x="14548.96" y="15149.90" pos="129.85" lane="-155876484#3_0" type="206" slope="0.00" id="_h5_4507" speed="13.40" angle="41.99">
</vehicle>
<vehicle x="9904.04" y="25793.83" pos="128.92" lane="-157844139#0_1" type="cx" slope="0.00" id="_h5_4508" speed="19.44" angle="6.12">
</vehicle>
<vehicle x="22848.91" y="12922.92" pos="23.90" lane="9806271#1_0" type="306" slope="0.00" id="_h5_4509" speed="3.97" angle="-34.69">
</vehicle>
<vehicle x="20168.60" y="10537.61" pos="11.86" lane="-34948546_0" type="206" slope="0.00" id="_h5_4510" speed="14.60" angle="-27.71">
</vehicle>
<vehicle x="28566.77" y="26433.88" pos="649.97" lane="30143811#3_0" type="206" slope="0.00" id="_h5_4511" speed="35.44" angle="-90.37">
</vehicle>
<vehicle x="16230.55" y="20633.55" pos="324.68" lane="48489430#1_0" type="twingo" slope="0.00" id="_h5_4512" speed="24.40" angle="108.75">
</vehicle>
<vehicle x="22849.79" y="16802.46" pos="854.99" lane="154771714#0_0" type="porsche" slope="0.00" id="_h5_4513" speed="35.24" angle="0.58">
</vehicle>
<vehicle x="26791.67" y="27852.88" pos="70.98" lane="-30269024_0" type="twingo" slope="0.00" id="_h5_4514" speed="23.35" angle="-34.57">
</vehicle>
<vehicle x="21524.39" y="18934.69" pos="175.57" lane="30767489#0_0" type="306" slope="0.00" id="_h5_4515" speed="36.03" angle="87.70">
</vehicle>
<vehicle x="36078.47" y="26823.54" pos="2737.05" lane="133399906_0" type="206" slope="0.00" id="_h5_4516" speed="36.01" angle="-68.76">
</vehicle>
<vehicle x="10306.27" y="24883.69" pos="75.41" lane="24430094#2-AddedOnRampEdge_1" type="cx" slope="0.00" id="_h5_4517" speed="24.36" angle="97.93">
</vehicle>
<vehicle x="37598.19" y="28235.47" pos="636.63" lane="133399906_0" type="porsche" slope="0.00" id="_h5_4518" speed="35.55" angle="-43.14">
</vehicle>
<vehicle x="19487.61" y="20022.81" pos="151.11" lane="26750767_0" type="porsche" slope="0.00" id="_h5_4519" speed="21.21" angle="-120.81">
</vehicle>
<vehicle x="22905.56" y="19613.32" pos="363.51" lane="29048761#3_0" type="twingo" slope="0.00" id="_h5_4520" speed="25.62" angle="137.12">
</vehicle>
<vehicle x="16303.79" y="24590.28" pos="1931.80" lane="24477182#1_0" type="twingo" slope="0.00" id="_h5_4521" speed="34.56" angle="79.90">
</vehicle>
<vehicle x="29000.30" y="26614.69" pos="13.02" lane="95260944_0" type="206" slope="0.00" id="_h5_4522" speed="7.17" angle="-51.10">
</vehicle>
<vehicle x="14595.98" y="28315.06" pos="35.60" lane="-23621275#5_1" type="twingo" slope="0.00" id="_h5_4523" speed="24.65" angle="-39.05">
</vehicle>
<vehicle x="22955.29" y="20524.64" pos="207.40" lane="-9068621_0" type="306" slope="0.00" id="_h5_4524" speed="18.99" angle="157.61">
</vehicle>
<vehicle x="24221.29" y="18971.85" pos="315.53" lane="9096558_0" type="porsche" slope="0.00" id="_h5_4525" speed="23.96" angle="124.83">
</vehicle>
<vehicle x="19428.46" y="20074.11" pos="34.23" lane="9094983#2-AddedOnRampEdge_1" type="twingo" slope="0.00" id="_h5_4526" speed="21.54" angle="-135.51">
</vehicle>
<vehicle x="43521.28" y="14878.97" pos="124.31" lane="24345309#5_0" type="twingo" slope="0.00" id="_h5_4527" speed="26.77" angle="-111.66">
</vehicle>
<vehicle x="34806.00" y="26720.20" pos="4024.74" lane="133399906_0" type="porsche" slope="0.00" id="_h5_4528" speed="35.97" angle="-91.70">
</vehicle>
<vehicle x="22703.11" y="33197.56" pos="30.81" lane="-34471620#14_0" type="206" slope="0.00" id="_h5_4529" speed="13.69" angle="78.98">
</vehicle>
<vehicle x="26073.49" y="25642.77" pos="11.61" lane="71121160#1_0" type="twingo" slope="0.00" id="_h5_4530" speed="18.37" angle="-74.75">
</vehicle>
<vehicle x="16126.90" y="20601.19" pos="216.13" lane="48489430#1_0" type="cx" slope="0.00" id="_h5_4531" speed="24.81" angle="106.10">
</vehicle>
<vehicle x="25174.27" y="14676.47" pos="510.90" lane="-81298130#1_1" type="306" slope="0.00" id="_h5_4532" speed="27.23" angle="-129.52">
</vehicle>
<vehicle x="32091.52" y="21558.76" pos="13.90" lane="117577988#2_0" type="cx" slope="0.00" id="_h5_4533" speed="13.70" angle="171.00">
</vehicle>
<vehicle x="24435.63" y="18321.47" pos="31.87" lane="-144731514#5_0" type="cx" slope="0.00" id="_h5_4534" speed="13.35" angle="-63.16">
</vehicle>
<vehicle x="42904.81" y="23284.94" pos="228.37" lane="-70954700#1_1" type="206" slope="0.00" id="_h5_4535" speed="27.45" angle="-61.56">
</vehicle>
<vehicle x="13279.94" y="25610.91" pos="24.01" lane="8773782#6_0" type="cx" slope="0.00" id="_h5_4536" speed="7.93" angle="72.63">
</vehicle>
<vehicle x="35171.94" y="18414.13" pos="247.64" lane="-103452743#13_0" type="porsche" slope="0.00" id="_h5_4537" speed="24.39" angle="-127.87">
</vehicle>
<vehicle x="19702.58" y="24710.89" pos="183.37" lane="-132442663#2_0" type="306" slope="0.00" id="_h5_4538" speed="24.70" angle="59.59">
</vehicle>
<vehicle x="19672.38" y="20190.60" pos="923.74" lane="27754908#3_1" type="cx" slope="0.00" id="_h5_4539" speed="34.78" angle="171.81">
</vehicle>
<vehicle x="10956.13" y="10930.44" pos="378.02" lane="9232836#0_2" type="cx" slope="0.00" id="_h5_4540" speed="25.00" angle="111.70">
</vehicle>
<vehicle x="38724.16" y="29170.85" pos="340.64" lane="133399991_0" type="twingo" slope="0.00" id="_h5_4541" speed="34.02" angle="-64.57">
</vehicle>
<vehicle x="8364.62" y="13251.75" pos="884.26" lane="36874675_0" type="306" slope="0.00" id="_h5_4542" speed="24.66" angle="-178.07">
</vehicle>
<vehicle x="28485.37" y="26433.27" pos="731.18" lane="30143811#3_0" type="porsche" slope="0.00" id="_h5_4543" speed="35.35" angle="-88.47">
</vehicle>
<vehicle x="17797.08" y="24787.73" pos="87.23" lane="23582149#1_0" type="306" slope="0.00" id="_h5_4544" speed="24.76" angle="168.51">
</vehicle>
<vehicle x="22969.12" y="20558.22" pos="243.70" lane="-9068621_0" type="206" slope="0.00" id="_h5_4545" speed="19.02" angle="157.61">
</vehicle>
<vehicle x="36015.92" y="26801.16" pos="2803.52" lane="133399906_0" type="306" slope="0.00" id="_h5_4546" speed="35.26" angle="-71.25">
</vehicle>
<vehicle x="19952.26" y="19424.19" pos="104.99" lane="9095107#1-AddedOnRampEdge_1" type="cx" slope="0.00" id="_h5_4547" speed="21.69" angle="57.42">
</vehicle>
<vehicle x="16257.19" y="24598.58" pos="1884.49" lane="24477182#1_0" type="porsche" slope="0.00" id="_h5_4548" speed="34.32" angle="79.90">
</vehicle>
<vehicle x="30492.44" y="15731.46" pos="528.79" lane="4292348#2_1" type="porsche" slope="0.00" id="_h5_4549" speed="24.52" angle="-99.72">
</vehicle>
<vehicle x="26997.75" y="28154.07" pos="56.68" lane="88130512#1_0" type="206" slope="0.00" id="_h5_4550" speed="18.80" angle="-34.95">
</vehicle>
<vehicle x="10204.84" y="24872.29" pos="201.09" lane="24765455#1_0" type="cx" slope="0.00" id="_h5_4551" speed="22.10" angle="99.39">
</vehicle>
<vehicle x="20612.70" y="19073.50" pos="524.79" lane="26750820#2_0" type="206" slope="0.00" id="_h5_4552" speed="35.54" angle="70.14">
</vehicle>
<vehicle x="25866.71" y="30167.06" pos="265.14" lane="-27112598#13_0" type="cx" slope="0.00" id="_h5_4553" speed="27.37" angle="-2.01">
</vehicle>
<vehicle x="15767.76" y="20529.83" pos="226.46" lane="48489429#0_0" type="porsche" slope="0.00" id="_h5_4554" speed="19.15" angle="99.72">
</vehicle>